 Entering Gaussian System, Link 0=g16
 Input=1.com
 Output=1.log
 Initial command:
 /share/g16/l1.exe "/scratch/dhzhang/Gau-19324.inp" -scrdir="/scratch/dhzhang/"
 Entering Link 1 = /share/g16/l1.exe PID=     19325.
  
 Copyright (c) 1988-2017, Gaussian, Inc.  All Rights Reserved.
  
 This is part of the Gaussian(R) 16 program.  It is based on
 the Gaussian(R) 09 system (copyright 2009, Gaussian, Inc.),
 the Gaussian(R) 03 system (copyright 2003, Gaussian, Inc.),
 the Gaussian(R) 98 system (copyright 1998, Gaussian, Inc.),
 the Gaussian(R) 94 system (copyright 1995, Gaussian, Inc.),
 the Gaussian 92(TM) system (copyright 1992, Gaussian, Inc.),
 the Gaussian 90(TM) system (copyright 1990, Gaussian, Inc.),
 the Gaussian 88(TM) system (copyright 1988, Gaussian, Inc.),
 the Gaussian 86(TM) system (copyright 1986, Carnegie Mellon
 University), and the Gaussian 82(TM) system (copyright 1983,
 Carnegie Mellon University). Gaussian is a federally registered
 trademark of Gaussian, Inc.
  
 This software contains proprietary and confidential information,
 including trade secrets, belonging to Gaussian, Inc.
  
 This software is provided under written license and may be
 used, copied, transmitted, or stored only in accord with that
 written license.
  
 The following legend is applicable only to US Government
 contracts under FAR:
  
                    RESTRICTED RIGHTS LEGEND
  
 Use, reproduction and disclosure by the US Government is
 subject to restrictions as set forth in subparagraphs (a)
 and (c) of the Commercial Computer Software - Restricted
 Rights clause in FAR 52.227-19.
  
 Gaussian, Inc.
 340 Quinnipiac St., Bldg. 40, Wallingford CT 06492
  
  
 ---------------------------------------------------------------
 Warning -- This program may not be used in any manner that
 competes with the business of Gaussian, Inc. or will provide
 assistance to any competitor of Gaussian, Inc.  The licensee
 of this program is prohibited from giving any competitor of
 Gaussian, Inc. access to this program.  By using this program,
 the user acknowledges that Gaussian, Inc. is engaged in the
 business of creating and licensing software in the field of
 computational chemistry and represents and warrants to the
 licensee that it is not a competitor of Gaussian, Inc. and that
 it will not use this program in any manner prohibited above.
 ---------------------------------------------------------------
  

 Cite this work as:
 Gaussian 16, Revision B.01,
 M. J. Frisch, G. W. Trucks, H. B. Schlegel, G. E. Scuseria, 
 M. A. Robb, J. R. Cheeseman, G. Scalmani, V. Barone, 
 G. A. Petersson, H. Nakatsuji, X. Li, M. Caricato, A. V. Marenich, 
 J. Bloino, B. G. Janesko, R. Gomperts, B. Mennucci, H. P. Hratchian, 
 J. V. Ortiz, A. F. Izmaylov, J. L. Sonnenberg, D. Williams-Young, 
 F. Ding, F. Lipparini, F. Egidi, J. Goings, B. Peng, A. Petrone, 
 T. Henderson, D. Ranasinghe, V. G. Zakrzewski, J. Gao, N. Rega, 
 G. Zheng, W. Liang, M. Hada, M. Ehara, K. Toyota, R. Fukuda, 
 J. Hasegawa, M. Ishida, T. Nakajima, Y. Honda, O. Kitao, H. Nakai, 
 T. Vreven, K. Throssell, J. A. Montgomery, Jr., J. E. Peralta, 
 F. Ogliaro, M. J. Bearpark, J. J. Heyd, E. N. Brothers, K. N. Kudin, 
 V. N. Staroverov, T. A. Keith, R. Kobayashi, J. Normand, 
 K. Raghavachari, A. P. Rendell, J. C. Burant, S. S. Iyengar, 
 J. Tomasi, M. Cossi, J. M. Millam, M. Klene, C. Adamo, R. Cammi, 
 J. W. Ochterski, R. L. Martin, K. Morokuma, O. Farkas, 
 J. B. Foresman, and D. J. Fox, Gaussian, Inc., Wallingford CT, 2016.
 
 ******************************************
 Gaussian 16:  ES64L-G16RevB.01 20-Dec-2017
                 2-Dec-2020 
 ******************************************
 %CPU=0-7
 SetSPE:  set environment variable "MP_BIND" = "yes"
 SetSPE:  set environment variable "MP_BLIST" = "0,1,2,3,4,5,6,7"
 Will use up to    8 processors via shared memory.
 %chk=0.chk
 -------------------------------------------
 #N B2PLYP/cc-pvtz scf=(xqc,fermi) FCHK freq
 -------------------------------------------
 1/10=4,30=1,38=1/1,3;
 2/12=2,17=6,18=5,40=1/2;
 3/5=16,6=1,11=9,25=1,30=1,71=2,74=-47,140=1/1,2,3;
 4//1;
 5/5=2,8=3,13=1,22=13,38=5,98=1/2,8;
 8/6=3,8=1,10=1,19=11,30=-1/1;
 9/15=3,16=-3/6;
 11/6=1,8=1,15=11,17=12,24=-1,27=1,28=-2,29=300,32=6,42=3/1,2,10;
 10/6=2,21=1/2;
 8/6=4,8=1,10=1,19=11,30=-1/11,4;
 10/5=1,20=4/2;
 11/12=2,14=11,16=1,17=2,28=-2,42=3,76=2/2,10,12;
 6/7=2,8=2,9=2,10=2/1;
 7/8=1,10=1,12=2,25=1,44=2/1,2,3,16;
 1/10=4,30=1/3;
 99//99;
 ---
 O2H
 ---
 Symbolic Z-matrix:
 Charge =  0 Multiplicity = 2
 O                     0.03104   1.47598  -0.00129 
 O                     0.03146  -1.40344   0.00104 
 H                    -0.50305  -0.57953   0.00402 
 

 GradGradGradGradGradGradGradGradGradGradGradGradGradGradGradGradGradGrad
 Berny optimization.
 Initialization pass.
 Trust Radius=3.00D-01 FncErr=1.00D-07 GrdErr=1.00D-07 EigMax=2.50D+02 EigMin=1.00D-04
 Number of steps in this run=      2 maximum allowed number of steps=      2.
 GradGradGradGradGradGradGradGradGradGradGradGradGradGradGradGradGradGrad

                          Input orientation:                          
 ---------------------------------------------------------------------
 Center     Atomic      Atomic             Coordinates (Angstroms)
 Number     Number       Type             X           Y           Z
 ---------------------------------------------------------------------
      1          8           0        0.031036    1.475977   -0.001294
      2          8           0        0.031455   -1.403444    0.001041
      3          1           0       -0.503054   -0.579526    0.004019
 ---------------------------------------------------------------------
                    Distance matrix (angstroms):
                    1          2          3
     1  O    0.000000
     2  O    2.879422   0.000000
     3  H    2.123764   0.982115   0.000000
 Stoichiometry    HO2(2)
 Framework group  CS[SG(HO2)]
 Deg. of freedom     3
 Full point group                 CS      NOp   2
 Largest Abelian subgroup         CS      NOp   2
 Largest concise Abelian subgroup C1      NOp   1
                         Standard orientation:                         
 ---------------------------------------------------------------------
 Center     Atomic      Atomic             Coordinates (Angstroms)
 Number     Number       Type             X           Y           Z
 ---------------------------------------------------------------------
      1          8           0        0.031435    1.475930   -0.000000
      2          8           0        0.031435   -1.403492   -0.000000
      3          1           0       -0.502966   -0.579499    0.000000
 ---------------------------------------------------------------------
 Rotational constants (GHZ):        1821.3664982           7.5792319           7.5478232
 Standard basis: CC-pVTZ (5D, 7F)
 There are    59 symmetry adapted cartesian basis functions of A'  symmetry.
 There are    26 symmetry adapted cartesian basis functions of A"  symmetry.
 There are    50 symmetry adapted basis functions of A'  symmetry.
 There are    24 symmetry adapted basis functions of A"  symmetry.
    74 basis functions,   121 primitive gaussians,    85 cartesian basis functions
     9 alpha electrons        8 beta electrons
       nuclear repulsion energy        18.0657212256 Hartrees.
 NAtoms=    3 NActive=    3 NUniq=    3 SFac= 1.00D+00 NAtFMM=   60 NAOKFM=F Big=F
 Integral buffers will be    131072 words long.
 Regular integral format.
 Two-electron integral symmetry is turned on.
 One-electron integrals computed using PRISM.
 NBasis=    74 RedAO= T EigKep=  4.20D-03  NBF=    50    24
 NBsUse=    74 1.00D-06 EigRej= -1.00D+00 NBFU=    50    24
 ExpMin= 1.03D-01 ExpMax= 1.53D+04 ExpMxC= 5.22D+02 IAcc=3 IRadAn=         5 AccDes= 0.00D+00
 Harris functional with IExCor=  419 and IRadAn=       5 diagonalized for initial guess.
 HarFok:  IExCor=  419 AccDes= 0.00D+00 IRadAn=         5 IDoV= 1 UseB2=F ITyADJ=14
 ICtDFT=  3500011 ScaDFX=  1.000000  1.000000  1.000000  1.000000
 FoFCou: FMM=F IPFlag=           0 FMFlag=      100000 FMFlg1=           0
         NFxFlg=           0 DoJE=T BraDBF=F KetDBF=T FulRan=T
         wScrn=  0.000000 ICntrl=       500 IOpCl=  0 I1Cent=   200000004 NGrid=           0
         NMat0=    1 NMatS0=      1 NMatT0=    0 NMatD0=    1 NMtDS0=    0 NMtDT0=    0
 Petite list used in FoFCou.
 Initial guess orbital symmetries:
 Alpha Orbitals:
       Occupied  (A') (A') (A') (A') (A') (A') (A") (A') (A")
       Virtual   (A') (A') (A') (A') (A') (A") (A") (A') (A') (A')
                 (A") (A') (A') (A') (A') (A") (A") (A') (A") (A')
                 (A') (A") (A') (A') (A') (A") (A') (A") (A') (A')
                 (A") (A') (A") (A') (A') (A") (A') (A') (A') (A")
                 (A') (A") (A') (A') (A") (A") (A') (A') (A") (A')
                 (A") (A') (A') (A") (A') (A") (A') (A") (A') (A')
                 (A") (A') (A') (A') (A')
 Beta  Orbitals:
       Occupied  (A') (A') (A') (A') (A') (A') (A") (A')
       Virtual   (A") (A') (A') (A') (A') (A') (A") (A") (A') (A')
                 (A') (A") (A') (A') (A') (A') (A") (A") (A') (A")
                 (A') (A') (A") (A') (A') (A') (A") (A') (A") (A')
                 (A') (A") (A') (A") (A') (A') (A") (A') (A') (A')
                 (A") (A') (A") (A') (A') (A") (A") (A') (A') (A")
                 (A') (A") (A') (A') (A") (A') (A") (A') (A") (A')
                 (A') (A") (A') (A') (A') (A')
 The electronic state of the initial guess is 2-A".
 Initial guess <Sx>= 0.0000 <Sy>= 0.0000 <Sz>= 0.5000 <S**2>= 0.7500 S= 0.5000
 Keep R1 and R2 ints in memory in symmetry-blocked form, NReq=11209756.
 Requested convergence on RMS density matrix=1.00D-08 within  32 cycles.
 Requested convergence on MAX density matrix=1.00D-06.
 Requested convergence on             energy=1.00D-06.
 Level shift goal  0.100 maximum shift  0.100.
 No special actions if energy rises.
 Dynamic level shift is on during FON iterations.
 Integral accuracy reduced to 1.0D-05 until final iterations.
 Failed to achieve initial convergence to 1.0D-08 in 10 cycles.
 Switch to full accuracy anyway.
 SCF Done:  E(UB2PLYP) =  -150.625832072     A.U. after   32 cycles
            NFock= 32  Conv=0.84D-08     -V/T= 2.0030
 <Sx>= 0.0000 <Sy>= 0.0000 <Sz>= 0.5000 <S**2>= 1.7579 S= 0.9170
 <L.S>=  0.00000000000    
 Annihilation of the first spin contaminant:
 S**2 before annihilation     1.7579,   after     0.7764
 QCSCF skips out because SCF is already converged.
 DoSCS=T DFT=T ScalE2(SS,OS)=  0.270000  0.270000
 ExpMin= 1.03D-01 ExpMax= 1.53D+04 ExpMxC= 5.22D+02 IAcc=3 IRadAn=         5 AccDes= 0.00D+00
 HarFok:  IExCor=  205 AccDes= 0.00D+00 IRadAn=         5 IDoV=-2 UseB2=F ITyADJ=14
 ICtDFT= 12500011 ScaDFX=  1.000000  1.000000  1.000000  1.000000
 Range of M.O.s used for correlation:     3    74
 NBasis=    74 NAE=     9 NBE=     8 NFC=     2 NFV=     0
 NROrb=     72 NOA=     7 NOB=     6 NVA=    65 NVB=    66
 DoSCS=T DFT=T ScalE2(SS,OS)=  0.270000  0.270000
 Disk-based method using ON**2 memory for  7 occupieds at a time.
 Permanent disk used for amplitudes=      443820 words.
 Estimated scratch disk usage=     8363676 words.
 Actual    scratch disk usage=     8363676 words.
 GetIJB would need an additional   103678944 words of memory to use all   8 processors.
 JobTyp=2 Pass  1:  I=   3 to   9 NPSUse=  4 ParTrn=F ParDer=T DoDerP=T.
 (rs|ai) integrals will be sorted in core.
 Actual    scratch disk usage=     8363676 words.
 GetIJB would need an additional   103678349 words of memory to use all   8 processors.
 JobTyp=3 Pass  1:  I=   3 to   8 NPSUse=  4 ParTrn=F ParDer=T DoDerP=T.
 (rs|ai) integrals will be sorted in core.
 Spin components of T(2) and E(2):
     alpha-alpha T2 =       0.1475499721D-01 E2=     -0.1506235692D-01
     alpha-beta  T2 =       0.8118184942D-01 E2=     -0.8465959395D-01
     beta-beta   T2 =       0.9386662555D-02 E2=     -0.9508786213D-02
 (S**2,0)=  0.17579D+01           (S**2,1)=  0.18303D+01
 Scaling Projection term by:   0.270000
 E(PUHF)=      -0.15061722467D+03        E(PMP2)=      -0.15073265659D+03
 E2(B2PLYP) =    -0.1092307371D+00 E(B2PLYP) =    -0.15073506280905D+03
 G2DrvN: will do     4 centers at a time, making    1 passes.
 Calling FoFCou, ICntrl=  3107 FMM=F I1Cent=   0 AccDes= 0.00D+00.
 End of G2Drv F.D. properties file   721 does not exist.
 End of G2Drv F.D. properties file   722 does not exist.
 End of G2Drv F.D. properties file   788 does not exist.
          IDoAtm=111
          Differentiating once with respect to electric field.
                with respect to dipole field.
          Differentiating once with respect to nuclear coordinates.
 Keep R1 and R2 ints in memory in symmetry-blocked form, NReq=11184787.
          There are    12 degrees of freedom in the 1st order CPHF.  IDoFFX=6 NUNeed=    12.
      9 vectors produced by pass  0 Test12= 9.28D-15 8.33D-09 XBig12= 6.02D+00 9.74D-01.
 AX will form     9 AO Fock derivatives at one time.
      9 vectors produced by pass  1 Test12= 9.28D-15 8.33D-09 XBig12= 2.24D-01 1.73D-01.
      9 vectors produced by pass  2 Test12= 9.28D-15 8.33D-09 XBig12= 6.28D-03 3.30D-02.
      9 vectors produced by pass  3 Test12= 9.28D-15 8.33D-09 XBig12= 4.76D-04 8.82D-03.
      9 vectors produced by pass  4 Test12= 9.28D-15 8.33D-09 XBig12= 1.85D-05 1.97D-03.
      9 vectors produced by pass  5 Test12= 9.28D-15 8.33D-09 XBig12= 2.07D-07 1.08D-04.
      9 vectors produced by pass  6 Test12= 9.28D-15 8.33D-09 XBig12= 8.81D-10 1.14D-05.
      6 vectors produced by pass  7 Test12= 9.28D-15 8.33D-09 XBig12= 4.84D-12 5.93D-07.
      3 vectors produced by pass  8 Test12= 9.28D-15 8.33D-09 XBig12= 5.74D-14 5.41D-08.
 InvSVY:  IOpt=1 It=  1 EMax= 2.25D-15
 Solved reduced A of dimension    72 with     9 vectors.
 End of Minotr F.D. properties file   721 does not exist.
 End of Minotr F.D. properties file   722 does not exist.
 End of Minotr F.D. properties file   788 does not exist.
 MDV=   104857600.
 DoSCS=T DFT=T ScalE2(SS,OS)=  0.270000  0.270000
 Form MO integral derivatives with frozen-active canonical formalism.
 Discarding MO integrals.
 Reordered first order wavefunction length =      1815348
 In DefCFB: NBatch=  1 ICI=  9 ICA= 66 LFMax= 33
            Large arrays: LIAPS=    28003080 LIARS=    24740100 words.
 In DefCFB: NBatch=  1 ICI=  9 ICA= 66 LFMax= 33
            Large arrays: LIAPS=    28003080 LIARS=    24740100 words.
 Semi-Direct transformation.
 ModeAB=           2 MOrb=             9 LenV=     104513805
 LASXX=      1655631 LTotXX=     1655631 LenRXX=     1655631
 LTotAB=     1748250 MaxLAS=     2434230 LenRXY=     2434230
 NonZer=     3311262 LenScr=     5672960 LnRSAI=           0
 LnScr1=           0 LExtra=           0 Total=      9762821
 MaxDsk=          -1 SrtSym=           F ITran=            4
 JobTyp=1 Pass  1:  I=   1 to   9.
 (rs|ai) integrals will be sorted in core.
 ModeAB=           2 MOrb=             8 LenV=     104513805
 LASXX=      1486594 LTotXX=     1486594 LenRXX=     2163760
 LTotAB=     1209780 MaxLAS=     2163760 LenRXY=     1209780
 NonZer=     2973188 LenScr=     5200384 LnRSAI=           0
 LnScr1=           0 LExtra=           0 Total=      8573924
 MaxDsk=          -1 SrtSym=           F ITran=            4
 JobTyp=2 Pass  1:  I=   1 to   8.
 (rs|ai) integrals will be sorted in core.
 DoSCS=T DFT=T ScalE2(SS,OS)=  0.270000  0.270000
 Spin components of T(2) and E(2):
     alpha-alpha T2 =       0.1475499721D-01 E2=     -0.1506235692D-01
     alpha-beta  T2 =       0.8118184942D-01 E2=     -0.8465959395D-01
     beta-beta   T2 =       0.9386662555D-02 E2=     -0.9508786213D-02
 E2(B2PLYP) =    -0.1092307371D+00 E(B2PLYP) =    -0.15073506280905D+03
 (S**2,0)=  0.17579D+01           (S**2,1)=  0.18303D+01
 Scaling Projection term by:   0.270000
 E(PUHF)=      -0.15061722467D+03        E(PMP2)=      -0.15073265659D+03
          IDoAtm=111
          Differentiating once with respect to electric field.
                with respect to dipole field.
          Differentiating once with respect to nuclear coordinates.
 Keep R1 and R2 ints in memory in symmetry-blocked form, NReq=11211987.
          There are     1 degrees of freedom in the 1st order CPHF.  IDoFFX=0 NUNeed=     1.
 LinEq1:  Iter=  0 NonCon=     1 RMS=8.95D-04 Max=2.02D-02 NDo=     1
 AX will form     1 AO Fock derivatives at one time.
 LinEq1:  Iter=  1 NonCon=     1 RMS=1.37D-04 Max=2.47D-03 NDo=     1
 LinEq1:  Iter=  2 NonCon=     1 RMS=3.49D-05 Max=5.01D-04 NDo=     1
 LinEq1:  Iter=  3 NonCon=     1 RMS=2.14D-05 Max=4.81D-04 NDo=     1
 LinEq1:  Iter=  4 NonCon=     1 RMS=1.22D-05 Max=2.00D-04 NDo=     1
 LinEq1:  Iter=  5 NonCon=     1 RMS=5.05D-06 Max=4.35D-05 NDo=     1
 LinEq1:  Iter=  6 NonCon=     1 RMS=2.08D-06 Max=2.14D-05 NDo=     1
 LinEq1:  Iter=  7 NonCon=     1 RMS=6.13D-07 Max=6.29D-06 NDo=     1
 LinEq1:  Iter=  8 NonCon=     1 RMS=9.38D-08 Max=7.37D-07 NDo=     1
 LinEq1:  Iter=  9 NonCon=     1 RMS=1.48D-08 Max=1.61D-07 NDo=     1
 LinEq1:  Iter= 10 NonCon=     1 RMS=2.40D-09 Max=3.29D-08 NDo=     1
 LinEq1:  Iter= 11 NonCon=     1 RMS=5.42D-10 Max=7.77D-09 NDo=     1
 LinEq1:  Iter= 12 NonCon=     1 RMS=1.15D-10 Max=1.14D-09 NDo=     1
 LinEq1:  Iter= 13 NonCon=     0 RMS=1.68D-11 Max=1.43D-10 NDo=     1
 Linear equations converged to 1.000D-10 1.000D-09 after    13 iterations.
 End of Minotr F.D. properties file   721 does not exist.
 End of Minotr F.D. properties file   722 does not exist.
 End of Minotr F.D. properties file   788 does not exist.
 Symmetrizing basis deriv contribution to polar:
 IMax=3 JMax=2 DiffMx= 0.00D+00
 G2DrvN: will do     4 centers at a time, making    1 passes.
 Calling FoFCou, ICntrl=  3107 FMM=F I1Cent=   0 AccDes= 0.00D+00.
 End of G2Drv F.D. properties file   721 does not exist.
 End of G2Drv F.D. properties file   722 does not exist.
 End of G2Drv F.D. properties file   788 does not exist.
 DoSCS=T DFT=T ScalE2(SS,OS)=  0.270000  0.270000
 R2 and R3 integrals will be kept in memory, NReq=    15302680.
 DD1Dir will call FoFMem   1 times, MxPair=       208
 NAB=    72 NAA=    36 NBB=    28.
 Discarding MO integrals.

 **********************************************************************

            Population analysis using the SCF Density.

 **********************************************************************

 Orbital symmetries:
 Alpha Orbitals:
       Occupied  (A') (A') (A') (A') (A") (A') (A") (A') (A')
       Virtual   (A') (A') (A') (A") (A') (A') (A") (A') (A') (A')
                 (A") (A') (A') (A') (A") (A') (A") (A') (A") (A')
                 (A') (A") (A') (A') (A') (A") (A') (A") (A') (A")
                 (A') (A") (A') (A') (A') (A") (A') (A') (A') (A")
                 (A') (A') (A") (A") (A") (A') (A') (A') (A") (A')
                 (A') (A") (A") (A') (A') (A") (A') (A") (A') (A')
                 (A") (A') (A') (A') (A')
 Beta  Orbitals:
       Occupied  (A') (A') (A') (A') (A') (A') (A') (A')
       Virtual   (A") (A") (A') (A') (A') (A') (A") (A') (A') (A")
                 (A') (A") (A') (A') (A') (A') (A") (A') (A") (A")
                 (A') (A') (A") (A') (A') (A') (A") (A') (A") (A')
                 (A') (A') (A") (A") (A') (A') (A") (A') (A') (A')
                 (A') (A") (A') (A") (A') (A") (A') (A') (A") (A")
                 (A') (A') (A") (A') (A") (A') (A") (A') (A") (A')
                 (A') (A") (A') (A') (A') (A')
 The electronic state is 2-A'.
 Alpha  occ. eigenvalues --  -19.87682 -19.78725  -1.15799  -1.09804  -0.55892
 Alpha  occ. eigenvalues --   -0.55501  -0.50524  -0.47172  -0.42237
 Alpha virt. eigenvalues --   -0.10904   0.10875   0.42328   0.54264   0.57340
 Alpha virt. eigenvalues --    0.61196   0.63743   0.66191   0.70193   0.75858
 Alpha virt. eigenvalues --    0.78273   0.94253   1.11793   1.28276   1.48567
 Alpha virt. eigenvalues --    1.50323   1.50519   1.52871   1.53263   1.56693
 Alpha virt. eigenvalues --    1.68959   1.86119   1.99489   2.05971   2.60324
 Alpha virt. eigenvalues --    3.31054   3.32471   3.48303   3.60840   3.65945
 Alpha virt. eigenvalues --    3.73931   3.76179   3.77847   3.81676   3.92248
 Alpha virt. eigenvalues --    4.17450   4.22467   4.46923   4.84864   5.17837
 Alpha virt. eigenvalues --    5.18631   5.19725   5.21007   5.21331   5.25768
 Alpha virt. eigenvalues --    5.25792   5.26488   5.28323   5.51791   5.52140
 Alpha virt. eigenvalues --    6.26147   6.26161   6.27802   6.34703   6.35712
 Alpha virt. eigenvalues --    6.35762   6.38486   6.46198   6.54831   6.66429
 Alpha virt. eigenvalues --    6.73750   6.80134   7.18215   7.51606  10.41892
  Beta  occ. eigenvalues --  -19.87695 -19.75723  -1.09958  -1.05383  -0.56089
  Beta  occ. eigenvalues --   -0.52524  -0.46828  -0.39126
  Beta virt. eigenvalues --   -0.11079  -0.04467   0.11526   0.43008   0.54293
  Beta virt. eigenvalues --    0.60137   0.63208   0.65748   0.68497   0.73300
  Beta virt. eigenvalues --    0.75784   0.80689   0.95387   1.12737   1.28904
  Beta virt. eigenvalues --    1.50545   1.50610   1.51308   1.54422   1.59487
  Beta virt. eigenvalues --    1.60127   1.69084   1.91778   2.00848   2.06245
  Beta virt. eigenvalues --    2.60932   3.31727   3.32989   3.54139   3.59895
  Beta virt. eigenvalues --    3.67908   3.74873   3.76991   3.80652   3.81951
  Beta virt. eigenvalues --    3.91800   4.22621   4.23201   4.49038   4.87522
  Beta virt. eigenvalues --    5.18163   5.18529   5.19590   5.21060   5.22775
  Beta virt. eigenvalues --    5.25757   5.27716   5.32220   5.32382   5.56045
  Beta virt. eigenvalues --    5.56442   6.24569   6.27756   6.29072   6.34556
  Beta virt. eigenvalues --    6.38121   6.45022   6.45845   6.54892   6.55989
  Beta virt. eigenvalues --    6.67734   6.78976   6.80783   7.20847   7.51960
  Beta virt. eigenvalues --   10.45080
          Condensed to atoms (all electrons):
               1          2          3
     1  O    7.977842  -0.006528   0.014911
     2  O   -0.006528   7.958228   0.314977
     3  H    0.014911   0.314977   0.417212
          Atomic-Atomic Spin Densities.
               1          2          3
     1  O   -0.000066   0.001609   0.001582
     2  O    0.001609   1.019575  -0.003651
     3  H    0.001582  -0.003651  -0.018591
 Mulliken charges and spin densities:
               1          2
     1  O    0.013775   0.003126
     2  O   -0.266676   1.017534
     3  H    0.252901  -0.020660
 Sum of Mulliken charges =   0.00000   1.00000
 Mulliken charges and spin densities with hydrogens summed into heavy atoms:
               1          2
     1  O    0.013775   0.003126
     2  O   -0.013775   0.996874
 APT charges:
               1
     1  O    0.013716
     2  O   -0.340457
     3  H    0.326741
 Sum of APT charges =  -0.00000
 APT charges with hydrogens summed into heavy atoms:
               1
     1  O    0.013716
     2  O   -0.013716
 Electronic spatial extent (au):  <R**2>=            146.8917
 Charge=             -0.0000 electrons
 Dipole moment (field-independent basis, Debye):
    X=             -0.9105    Y=              1.6836    Z=              0.0000  Tot=              1.9140
 Quadrupole moment (field-independent basis, Debye-Ang):
   XX=            -11.0151   YY=            -14.2477   ZZ=            -10.0119
   XY=             -0.2274   XZ=              0.0000   YZ=              0.0000
 Traceless Quadrupole moment (field-independent basis, Debye-Ang):
   XX=              0.7431   YY=             -2.4895   ZZ=              1.7463
   XY=             -0.2274   XZ=              0.0000   YZ=              0.0000
 Octapole moment (field-independent basis, Debye-Ang**2):
  XXX=             -0.5177  YYY=              6.4796  ZZZ=              0.0000  XYY=             -1.2033
  XXY=              0.8554  XXZ=              0.0000  XZZ=             -0.0593  YZZ=              0.3953
  YYZ=              0.0000  XYZ=             -0.0000
 Hexadecapole moment (field-independent basis, Debye-Ang**3):
 XXXX=             -9.1567 YYYY=           -152.0270 ZZZZ=             -6.6456 XXXY=             -0.7638
 XXXZ=              0.0000 YYYX=             -5.8263 YYYZ=              0.0000 ZZZX=              0.0000
 ZZZY=              0.0000 XXYY=            -25.7703 XXZZ=             -2.6554 YYZZ=            -22.4984
 XXYZ=              0.0000 YYXZ=              0.0000 ZZXY=             -0.2901
 N-N= 1.806572122559D+01 E-N=-3.934124727164D+02  KE= 1.501727100534D+02
 Symmetry A'   KE= 1.450366776785D+02
 Symmetry A"   KE= 5.136032374966D+00
 Symmetry A'   SP=-1.000000000000D+00
 Symmetry A"   SP= 2.000000000000D+00
  Exact polarizability:   7.679  -0.774  13.031   0.000  -0.000   6.065
 Approx polarizability:   7.536  -1.318  10.371  -0.000   0.000   6.471
                          Isotropic Fermi Contact Couplings
        Atom                 a.u.       MegaHertz       Gauss      10(-4) cm-1
     1  O(17)             -0.00257       1.55753       0.55577       0.51954
     2  O(17)              0.01661     -10.06688      -3.59211      -3.35795
     3  H(1)              -0.01498     -66.96093     -23.89332     -22.33576
 --------------------------------------------------------
       Center         ----  Spin Dipole Couplings  ----
                      3XX-RR        3YY-RR        3ZZ-RR
 --------------------------------------------------------
     1   Atom       -3.582061     -2.656609      6.238671
     2   Atom       -1.910806     -1.963543      3.874349
     3   Atom       -0.048725      0.073954     -0.025228
 --------------------------------------------------------
                        XY            XZ            YZ
 --------------------------------------------------------
     1   Atom        3.089806     -0.000000     -0.000000
     2   Atom       -0.046481      0.000000      0.000000
     3   Atom       -0.134090      0.000000     -0.000000
 --------------------------------------------------------


 ---------------------------------------------------------------------------------
              Anisotropic Spin Dipole Couplings in Principal Axis System
 ---------------------------------------------------------------------------------

       Atom             a.u.   MegaHertz   Gauss  10(-4) cm-1        Axes

              Baa    -6.2436   451.782   161.207   150.698  0.7577 -0.6526 -0.0000
     1 O(17)  Bbb     0.0049    -0.357    -0.127    -0.119  0.6526  0.7577 -0.0000
              Bcc     6.2387  -451.426  -161.080  -150.579  0.0000  0.0000  1.0000
 
              Baa    -1.9906   144.039    51.397    48.046  0.5033  0.8641 -0.0000
     2 O(17)  Bbb    -1.8837   136.306    48.637    45.467  0.8641 -0.5033  0.0000
              Bcc     3.8743  -280.345  -100.034   -93.513  0.0000  0.0000  1.0000
 
              Baa    -0.1348   -71.944   -25.672   -23.998  0.8414  0.5404  0.0000
     3 H(1)   Bbb    -0.0252   -13.461    -4.803    -4.490  0.0000  0.0000  1.0000
              Bcc     0.1601    85.405    30.475    28.488 -0.5404  0.8414 -0.0000
 

 ---------------------------------------------------------------------------------

 Calling FoFJK, ICntrl=  10100127 FMM=F ISym2X=1 I1Cent= 0 IOpClX= 1 NMat=1 NMatS=1 NMatT=0.
 Full mass-weighted force constant matrix:
 Low frequencies ---  -41.3900  -36.3125    0.0014    0.0015    0.0015  126.7981
 Low frequencies ---  386.6937  405.7192 3599.1757
 Diagonal vibrational polarizability:
       21.3259717      28.4583962       0.0000000
 Harmonic frequencies (cm**-1), IR intensities (KM/Mole), Raman scattering
 activities (A**4/AMU), depolarization ratios for plane and unpolarized
 incident light, reduced masses (AMU), force constants (mDyne/A),
 and normal coordinates:
                      1                      2                      3
                     A'                     A'                     A'
 Frequencies --    123.8500               403.5732              3599.1757
 Red. masses --     10.7339                 1.0514                 1.0670
 Frc consts  --      0.0970                 0.1009                 8.1436
 IR Inten    --      9.6317               198.5084                41.6072
  Atom  AN      X      Y      Z        X      Y      Z        X      Y      Z
     1   8    -0.01   0.57   0.00    -0.02  -0.04   0.00    -0.00  -0.00   0.00
     2   8    -0.03  -0.56   0.00    -0.03   0.00   0.00     0.03  -0.05  -0.00
     3   1     0.56  -0.18  -0.00     0.83   0.56  -0.00    -0.54   0.84   0.00

 -------------------
 - Thermochemistry -
 -------------------
 Temperature   298.150 Kelvin.  Pressure   1.00000 Atm.
 Atom     1 has atomic number  8 and mass  15.99491
 Atom     2 has atomic number  8 and mass  15.99491
 Atom     3 has atomic number  1 and mass   1.00783
 Molecular mass:    32.99765 amu.
 Principal axes and moments of inertia in atomic units:
                           1         2         3
     Eigenvalues --     0.99087 238.11664 239.10751
           X            0.00484   0.99999   0.00000
           Y            0.99999  -0.00484   0.00000
           Z           -0.00000   0.00000   1.00000
 This molecule is an asymmetric top.
 Rotational symmetry number  1.
 Rotational temperatures (Kelvin)     87.41181     0.36375     0.36224
 Rotational constants (GHZ):        1821.36650     7.57923     7.54782
 Zero-point vibrational energy      24682.5 (Joules/Mol)
                                    5.89927 (Kcal/Mol)
 Warning -- explicit consideration of   2 degrees of freedom as
           vibrations may cause significant error
 Vibrational temperatures:    178.19   580.65  5178.41
          (Kelvin)
 
 Zero-point correction=                           0.009401 (Hartree/Particle)
 Thermal correction to Energy=                    0.013230
 Thermal correction to Enthalpy=                  0.014174
 Thermal correction to Gibbs Free Energy=        -0.014549
 Sum of electronic and zero-point Energies=           -150.725662
 Sum of electronic and thermal Energies=              -150.721833
 Sum of electronic and thermal Enthalpies=            -150.720889
 Sum of electronic and thermal Free Energies=         -150.749612
 
                     E (Thermal)             CV                S
                      KCal/Mol        Cal/Mol-Kelvin    Cal/Mol-Kelvin
 Total                    8.302              9.353             60.453
 Electronic               0.000              0.000              1.377
 Translational            0.889              2.981             36.413
 Rotational               0.889              2.981             18.673
 Vibrational              6.524              3.392              3.989
 Vibration     1          0.610              1.929              3.039
 Vibration     2          0.769              1.462              0.950
                       Q            Log10(Q)             Ln(Q)
 Total Bot       0.492347D+07          6.692271         15.409524
 Total V=0       0.103864D+12         11.016466         25.366351
 Vib (Bot)       0.122890D-03         -3.910483         -9.004220
 Vib (Bot)    1  0.164854D+01          0.217101          0.499893
 Vib (Bot)    2  0.440487D+00         -0.356067         -0.819874
 Vib (V=0)       0.259246D+01          0.413712          0.952606
 Vib (V=0)    1  0.222270D+01          0.346881          0.798723
 Vib (V=0)    2  0.116635D+01          0.066831          0.153883
 Electronic      0.200000D+01          0.301030          0.693147
 Translational   0.745038D+07          6.872178         15.823776
 Rotational      0.268872D+04          3.429546          7.896821
 ***** Axes restored to original set *****
 -------------------------------------------------------------------
 Center     Atomic                   Forces (Hartrees/Bohr)
 Number     Number              X              Y              Z
 -------------------------------------------------------------------
      1        8          -0.000084814    0.002139948   -0.000001158
      2        8          -0.005541847    0.006077934    0.000032881
      3        1           0.005626661   -0.008217882   -0.000031723
 -------------------------------------------------------------------
 Cartesian Forces:  Max     0.008217882 RMS     0.004364439

 GradGradGradGradGradGradGradGradGradGradGradGradGradGradGradGradGradGrad
 Berny optimization.
 Search for a local minimum.
 Step number   1 out of a maximum of    2
 All quantities printed in internal units (Hartrees-Bohrs-Radians)
 Second derivative matrix not updated -- analytic derivatives used.
 The second derivative matrix:
                          X1        Y1        Z1        X2        Y2
           X1          -0.00032
           Y1           0.00117   0.00682
           Z1          -0.00000  -0.00001  -0.00041
           X2           0.00040   0.00128  -0.00000   0.14084
           Y2          -0.00094  -0.00419   0.00001  -0.21081   0.33098
           Z2           0.00000  -0.00000   0.00041  -0.00076   0.00117
           X3          -0.00008  -0.00244   0.00000  -0.14124   0.21175
           Y3          -0.00023  -0.00263   0.00000   0.20954  -0.32679
           Z3           0.00000   0.00002   0.00000   0.00076  -0.00118
                          Z2        X3        Y3        Z3
           Z2           0.00497
           X3           0.00076   0.14132
           Y3          -0.00117  -0.20931   0.32942
           Z3          -0.00537  -0.00076   0.00117   0.00537
 ITU=  0
     Eigenvalues ---    0.00583   0.01074   0.81415
 Quadratic step=3.996D-01 exceeds max=3.000D-01 adjusted using Lamda=-2.181D-03.
 Angle between NR and scaled steps=   3.28 degrees.
 Angle between quadratic step and forces=  75.23 degrees.
 ClnCor:  largest displacement from symmetrization is 5.65D-17 for atom     1.
 Linear search not attempted -- first point.
 ClnCor:  largest displacement from symmetrization is 4.58D-16 for atom     2.
 B after Tr=    -0.030608    0.011990    0.000199
         Rot=    0.999996    0.000020    0.000002    0.002982 Ang=   0.34 deg.
 Variable       Old X    -DE/DX   Delta X   Delta X   Delta X     New X
                                 (Linear)    (Quad)   (Total)
    X1        0.05865  -0.00008   0.00000  -0.01123  -0.02410   0.03455
    Y1        2.78919   0.00214   0.00000   0.18580   0.19746   2.98665
    Z1       -0.00244  -0.00000   0.00000  -0.00007   0.00000  -0.00244
    X2        0.05944  -0.00554   0.00000  -0.04224  -0.08964  -0.03020
    Y2       -2.65213   0.00608   0.00000  -0.16373  -0.15179  -2.80391
    Z2        0.00197   0.00003   0.00000   0.00042   0.00073   0.00270
    X3       -0.95063   0.00563   0.00000   0.15124   0.11374  -0.83689
    Y3       -1.09515  -0.00822   0.00000  -0.06245  -0.04567  -1.14081
    Z3        0.00759  -0.00003   0.00000  -0.00098  -0.00074   0.00686
         Item               Value     Threshold  Converged?
 Maximum Force            0.008218     0.000450     NO 
 RMS     Force            0.004364     0.000300     NO 
 Maximum Displacement     0.197458     0.001800     NO 
 RMS     Displacement     0.097564     0.001200     NO 
 Predicted change in Energy=-5.856703D-04
 GradGradGradGradGradGradGradGradGradGradGradGradGradGradGradGradGradGrad


 ----------------------------------------------------------------------

 Electric dipole moment (input orientation):
 (Debye = 10**-18 statcoulomb cm , SI units = C m)
                  (au)            (Debye)         (10**-30 SI)
   Tot        0.732168D+00      0.186098D+01      0.620758D+01
   x         -0.348224D+00     -0.885098D+00     -0.295237D+01
   y          0.644054D+00      0.163702D+01      0.546052D+01
   z          0.185331D-02      0.471063D-02      0.157130D-01

 Dipole polarizability, Alpha (input orientation).
 (esu units = cm**3 , SI units = C**2 m**2 J**-1)
 Alpha(0;0):
               (au)            (10**-24 esu)      (10**-40 SI)
   iso        0.892477D+01      0.132251D+01      0.147150D+01
   aniso      0.645687D+01      0.956809D+00      0.106459D+01
   xx         0.767892D+01      0.113790D+01      0.126608D+01
   yx        -0.775151D+00     -0.114866D+00     -0.127805D+00
   yy         0.130308D+02      0.193096D+01      0.214849D+01
   zx        -0.103865D-01     -0.153912D-02     -0.171250D-02
   zy        -0.365206D-03     -0.541180D-04     -0.602144D-04
   zz         0.606459D+01      0.898680D+00      0.999916D+00

 ----------------------------------------------------------------------

 Dipole orientation:
     8          1.20822224          0.66301560          2.42562270
     8         -1.05980307         -0.58203972         -2.36121874
     1         -1.18954777         -0.65326437         -0.51120141

 Electric dipole moment (dipole orientation):
 (Debye = 10**-18 statcoulomb cm , SI units = C m)
                  (au)            (Debye)         (10**-30 SI)
   Tot        0.732168D+00      0.186098D+01      0.620758D+01
   x          0.000000D+00      0.000000D+00      0.000000D+00
   y          0.000000D+00      0.000000D+00      0.000000D+00
   z          0.732168D+00      0.186098D+01      0.620758D+01

 Dipole polarizability, Alpha (dipole orientation).
 (esu units = cm**3 , SI units = C**2 m**2 J**-1)
 Alpha(0;0):
               (au)            (10**-24 esu)      (10**-40 SI)
   iso        0.892477D+01      0.132251D+01      0.147150D+01
   aniso      0.645687D+01      0.956809D+00      0.106459D+01
   xx         0.773700D+01      0.114651D+01      0.127566D+01
   yx         0.918127D+00      0.136052D+00      0.151379D+00
   yy         0.656853D+01      0.973356D+00      0.108301D+01
   zx         0.159069D+01      0.235716D+00      0.262270D+00
   zy         0.873227D+00      0.129399D+00      0.143976D+00
   zz         0.124688D+02      0.184768D+01      0.205582D+01

 ----------------------------------------------------------------------
 1\1\GINC-CARBON\Freq\UB2PLYP-FC\CC-pVTZ\H1O2(2)\DHZHANG\02-Dec-2020\0\
 \#N B2PLYP/cc-pvtz scf=(xqc,fermi) FCHK freq\\O2H\\0,2\O,0.0310364969,
 1.4759766795,-0.0012937458\O,0.0314553566,-1.4034443577,0.0010405568\H
 ,-0.5030535329,-0.5795260199,0.0040189617\\Version=ES64L-G16RevB.01\St
 ate=2-A'\HF=-150.6258321\MP2=-150.7350628\PUHF=-150.6172247\PMP2-0=-15
 0.7326566\S2=1.757892\S2-1=1.830334\S2A=0.776442\RMSD=8.372e-09\RMSF=4
 .364e-03\ZeroPoint=0.0094011\Thermal=0.0132295\Dipole=-0.3482244,0.644
 0541,0.0018533\DipoleDeriv=0.0167842,-0.0523634,0.0000487,0.0001204,0.
 0066767,0.0000081,0.0000061,0.0003662,0.0176858,-0.3013871,-0.1316648,
 -0.000357,-0.1087142,-0.3506114,0.0007266,-0.0003757,0.0008832,-0.3693
 714,0.2846029,0.1840283,0.0003084,0.1085938,0.3439347,-0.0007347,0.000
 3696,-0.0012494,0.3516856\Polar=7.6789207,-0.7751512,13.0307881,-0.010
 3865,-0.0003652,6.0645906\PG=CS [SG(H1O2)]\NImag=0\\-0.00032286,0.0011
 6695,0.00681776,-0.00000155,-0.00001383,-0.00041116,0.00040422,0.00127
 703,-0.00000102,0.14083939,-0.00093836,-0.00418844,0.00001013,-0.21081
 262,0.33098082,0.00000078,-0.00000498,0.00040727,-0.00075603,0.0011738
 3,0.00496688,-0.00008136,-0.00244398,0.00000257,-0.14124361,0.21175097
 ,0.00075525,0.14132496,-0.00022860,-0.00262932,0.00000370,0.20953559,-
 0.32679238,-0.00116885,-0.20930699,0.32942170,0.00000077,0.00001881,0.
 00000390,0.00075704,-0.00118397,-0.00537414,-0.00075781,0.00116515,0.0
 0537025\\0.00008481,-0.00213995,0.00000116,0.00554185,-0.00607793,-0.0
 0003288,-0.00562666,0.00821788,0.00003172\\\@


 DON'T WORRY CHARLIE BROWN...WE LEARN MORE FROM LOSING 
 THAN WE DO FROM WINNING.
 THEN THAT MAKES ME THE SMARTEST PERSON IN THE WORLD...
 CHARLES SCHULZ 'PEANUTS'
 FChkPn:  Coordinates translated and rotated.
 FChkPn:  Coordinates match /B/ after translation and rotation.
 Job cpu time:       0 days  0 hours  3 minutes 25.4 seconds.
 Elapsed time:       0 days  0 hours  0 minutes 32.1 seconds.
 File lengths (MBytes):  RWF=    438 Int=      0 D2E=      0 Chk=      2 Scr=      1
 Normal termination of Gaussian 16 at Wed Dec  2 16:34:02 2020.
