3
# CELL(abcABC):   57.60000    57.60000    57.60000    90.00000    90.00000    90.00000  Step:           0  Bead:       0 positions{angstrom}  cell{angstrom}
       O  3.10480e-02  1.47582e+00  0.00000e+00
       O  3.10480e-02 -1.40319e+00  0.00000e+00
       H -4.96770e-01 -5.81013e-01  0.00000e+00
3
# CELL(abcABC):   57.60000    57.60000    57.60000    90.00000    90.00000    90.00000  Step:           1  Bead:       0 positions{angstrom}  cell{angstrom}
       O  3.11191e-02  1.47621e+00 -1.29375e-03
       O  3.14429e-02 -1.40333e+00  1.04056e-03
       H -5.04166e-01 -5.84942e-01  4.01896e-03
3
# CELL(abcABC):   57.60000    57.60000    57.60000    90.00000    90.00000    90.00000  Step:           2  Bead:       0 positions{angstrom}  cell{angstrom}
       O  3.10248e-02  1.47791e+00 -1.25396e-03
       O  3.18040e-02 -1.40435e+00  7.47353e-04
       H -5.08403e-01 -5.95848e-01  8.04162e-03
3
# CELL(abcABC):   57.60000    57.60000    57.60000    90.00000    90.00000    90.00000  Step:           3  Bead:       0 positions{angstrom}  cell{angstrom}
       O  3.12122e-02  1.48036e+00 -2.26820e-03
       O  3.13455e-02 -1.40595e+00  9.74344e-04
       H -5.04099e-01 -6.09288e-01  2.05378e-02
3
# CELL(abcABC):   57.60000    57.60000    57.60000    90.00000    90.00000    90.00000  Step:           4  Bead:       0 positions{angstrom}  cell{angstrom}
       O  3.15231e-02  1.48412e+00 -3.65152e-03
       O  3.18601e-02 -1.40845e+00  1.76120e-03
       H -5.17202e-01 -6.29256e-01  3.00058e-02
3
# CELL(abcABC):   57.60000    57.60000    57.60000    90.00000    90.00000    90.00000  Step:           5  Bead:       0 positions{angstrom}  cell{angstrom}
       O  2.99661e-02  1.48681e+00 -4.78532e-03
       O  3.37390e-02 -1.40937e+00  2.09237e-03
       H -5.22312e-01 -6.57305e-01  4.27462e-02
3
# CELL(abcABC):   57.60000    57.60000    57.60000    90.00000    90.00000    90.00000  Step:           6  Bead:       0 positions{angstrom}  cell{angstrom}
       O  3.17650e-02  1.48878e+00 -5.08187e-03
       O  3.26643e-02 -1.40926e+00  2.00776e-03
       H -5.33807e-01 -6.90331e-01  4.87965e-02
