3
# CELL(abcABC):   57.60000    57.60000    57.60000    90.00000    90.00000    90.00000  Step:           0  Bead:       0 velocities{atomic_unit}  cell{angstrom}
       O -2.04811e-04  1.60094e-05 -8.53024e-05
       O  1.96331e-04 -3.27165e-05  6.37536e-05
       H  1.34611e-04  2.65198e-04  3.42052e-04
3
# CELL(abcABC):   57.60000    57.60000    57.60000    90.00000    90.00000    90.00000  Step:           1  Bead:       0 velocities{atomic_unit}  cell{angstrom}
       O -3.36063e-05  6.57758e-05 -1.21929e-04
       O  8.94216e-05 -4.91763e-07  1.08702e-04
       H -8.85977e-04 -1.03628e-03  2.09949e-04
3
# CELL(abcABC):   57.60000    57.60000    57.60000    90.00000    90.00000    90.00000  Step:           2  Bead:       0 velocities{atomic_unit}  cell{angstrom}
       O -7.72928e-05  1.04948e-04 -1.05212e-04
       O  3.87080e-05 -5.40616e-05  5.12922e-05
       H  6.12470e-04 -8.07739e-04  8.55885e-04
3
# CELL(abcABC):   57.60000    57.60000    57.60000    90.00000    90.00000    90.00000  Step:           3  Bead:       0 velocities{atomic_unit}  cell{angstrom}
       O  6.20922e-05  2.85767e-04 -5.45351e-05
       O -2.14748e-05 -2.20736e-04 -1.06763e-05
       H -6.44736e-04 -1.03226e-03  1.03512e-03
3
# CELL(abcABC):   57.60000    57.60000    57.60000    90.00000    90.00000    90.00000  Step:           4  Bead:       0 velocities{atomic_unit}  cell{angstrom}
       O -7.11878e-05  1.95376e-04 -7.45864e-05
       O  1.58108e-04 -5.03455e-05  5.15807e-05
       H -1.37972e-03 -2.30212e-03  3.65177e-04
3
# CELL(abcABC):   57.60000    57.60000    57.60000    90.00000    90.00000    90.00000  Step:           5  Bead:       0 velocities{atomic_unit}  cell{angstrom}
       O  2.14479e-05  2.97071e-04 -1.34846e-05
       O  3.13357e-05 -1.17149e-04 -3.61189e-05
       H -8.37854e-04 -2.85597e-03  7.87374e-04
3
# CELL(abcABC):   57.60000    57.60000    57.60000    90.00000    90.00000    90.00000  Step:           6  Bead:       0 velocities{atomic_unit}  cell{angstrom}
       O  2.03862e-04  7.51861e-05  7.50882e-05
       O -1.33428e-04  5.52567e-05 -7.24947e-05
       H -1.11803e-03 -2.07057e-03 -4.11663e-05
