O2H                                                                     
Freq      UB2PLYP-FC                                                  CC-pVTZ             
Number of atoms                            I                3
Info1-9                                    I   N=           9
          11          11           0           0           0         100
           6           2       -4701
Full Title                                 C   N=           1
O2H         
Route                                      C   N=           4
#N B2PLYP/cc-pvtz scf=(xqc,fermi) FCHK freq     
Charge                                     I                0
Multiplicity                               I                2
Number of electrons                        I               17
Number of alpha electrons                  I                9
Number of beta electrons                   I                8
Number of basis functions                  I               74
Number of independent functions            I               74
Number of point charges in /Mol/           I                0
Number of translation vectors              I                0
Atomic numbers                             I   N=           3
           8           8           1
Nuclear charges                            R   N=           3
  8.00000000E+00  8.00000000E+00  1.00000000E+00
Current cartesian coordinates              R   N=           9
  5.94042601E-02  2.78910289E+00 -5.72201521E-19  5.94042601E-02 -2.65221611E+00
 -3.48273559E-19 -9.50468162E-01 -1.09509426E+00  3.02715577E-18
Number of symbols in /Mol/                 I                0
Force Field                                I                0
Atom Types                                 C   N=           3
                                    
Int Atom Types                             I   N=           3
           0           0           0
MM charges                                 R   N=           3
  0.00000000E+00  0.00000000E+00  0.00000000E+00
Integer atomic weights                     I   N=           3
          16          16           1
Real atomic weights                        R   N=           3
  1.59949146E+01  1.59949146E+01  1.00782504E+00
Atom fragment info                         I   N=           3
           0           0           0
Atom residue num                           I   N=           3
           0           0           0
Nuclear spins                              I   N=           3
           0           0           1
Nuclear ZEff                               R   N=           3
 -5.60000000E+00 -5.60000000E+00 -1.00000000E+00
Nuclear ZNuc                               R   N=           3
  8.00000000E+00  8.00000000E+00  1.00000000E+00
Nuclear QMom                               R   N=           3
  0.00000000E+00  0.00000000E+00  0.00000000E+00
Nuclear GFac                               R   N=           3
  0.00000000E+00  0.00000000E+00  2.79284600E+00
MicOpt                                     I   N=           3
          -1          -1          -1
Number of residues                         I                0
Number of secondary structures             I                0
SymInf integers                            I   N=          26
           1           2           1           1           1           1
           1          -1           0           0           0           0
           0           0           0           0           0           0
           0           0           0           0           0           0
           0           0
RotTr to input orientation                 R   N=          12
  9.99976711E-01  1.39931666E-04 -6.82334107E-03 -1.45466582E-04  9.99999661E-01
 -8.10684411E-04  6.82322532E-03  8.11658099E-04  9.99976392E-01 -3.46676406E-04
  8.14310589E-05  2.21592576E-04
Number of contracted shells                I               26
Number of primitive shells                 I               54
Pure/Cartesian d shells                    I                0
Pure/Cartesian f shells                    I                0
Highest angular momentum                   I                3
Largest degree of contraction              I                7
Shell types                                I   N=          26
           0           0           0           0           1           1
           1          -2          -2          -3           0           0
           0           0           1           1           1          -2
          -2          -3           0           0           0           1
           1          -2
Number of primitives per shell             I   N=          26
           7           6           1           1           3           1
           1           1           1           1           7           6
           1           1           3           1           1           1
           1           1           3           1           1           1
           1           1
Shell to atom map                          I   N=          26
           1           1           1           1           1           1
           1           1           1           1           2           2
           2           2           2           2           2           2
           2           2           3           3           3           3
           3           3
Primitive exponents                        R   N=          54
  1.53300000E+04  2.29900000E+03  5.22400000E+02  1.47300000E+02  4.75500000E+01
  1.67600000E+01  6.20700000E+00  5.22400000E+02  1.47300000E+02  4.75500000E+01
  1.67600000E+01  6.20700000E+00  6.88200000E-01  1.75200000E+00  2.38400000E-01
  3.44600000E+01  7.74900000E+00  2.28000000E+00  7.15600000E-01  2.14000000E-01
  2.31400000E+00  6.45000000E-01  1.42800000E+00  1.53300000E+04  2.29900000E+03
  5.22400000E+02  1.47300000E+02  4.75500000E+01  1.67600000E+01  6.20700000E+00
  5.22400000E+02  1.47300000E+02  4.75500000E+01  1.67600000E+01  6.20700000E+00
  6.88200000E-01  1.75200000E+00  2.38400000E-01  3.44600000E+01  7.74900000E+00
  2.28000000E+00  7.15600000E-01  2.14000000E-01  2.31400000E+00  6.45000000E-01
  1.42800000E+00  3.38700000E+01  5.09500000E+00  1.15900000E+00  3.25800000E-01
  1.02700000E-01  1.40700000E+00  3.88000000E-01  1.05700000E+00
Contraction coefficients                   R   N=          54
  5.19808943E-04  4.02025621E-03  2.07128267E-02  8.10105536E-02  2.35962985E-01
  4.42653446E-01  3.57064423E-01 -4.42115008E-05 -1.22591041E-03 -1.05517725E-02
 -6.74452633E-02 -1.71198607E-01  1.07329856E+00  1.00000000E+00  1.00000000E+00
  4.11634896E-02  2.57762836E-01  8.02419274E-01  1.00000000E+00  1.00000000E+00
  1.00000000E+00  1.00000000E+00  1.00000000E+00  5.19808943E-04  4.02025621E-03
  2.07128267E-02  8.10105536E-02  2.35962985E-01  4.42653446E-01  3.57064423E-01
 -4.42115008E-05 -1.22591041E-03 -1.05517725E-02 -6.74452633E-02 -1.71198607E-01
  1.07329856E+00  1.00000000E+00  1.00000000E+00  4.11634896E-02  2.57762836E-01
  8.02419274E-01  1.00000000E+00  1.00000000E+00  1.00000000E+00  1.00000000E+00
  1.00000000E+00  2.54948632E-02  1.90362766E-01  8.52162022E-01  1.00000000E+00
  1.00000000E+00  1.00000000E+00  1.00000000E+00  1.00000000E+00
Coordinates of each shell                  R   N=          78
  5.94042601E-02  2.78910289E+00 -7.41058224E-20  5.94042601E-02  2.78910289E+00
 -7.41058224E-20  5.94042601E-02  2.78910289E+00 -7.41058224E-20  5.94042601E-02
  2.78910289E+00 -7.41058224E-20  5.94042601E-02  2.78910289E+00 -7.41058224E-20
  5.94042601E-02  2.78910289E+00 -7.41058224E-20  5.94042601E-02  2.78910289E+00
 -7.41058224E-20  5.94042601E-02  2.78910289E+00 -7.41058224E-20  5.94042601E-02
  2.78910289E+00 -7.41058224E-20  5.94042601E-02  2.78910289E+00 -7.41058224E-20
  5.94042601E-02 -2.65221611E+00 -1.24209943E-19  5.94042601E-02 -2.65221611E+00
 -1.24209943E-19  5.94042601E-02 -2.65221611E+00 -1.24209943E-19  5.94042601E-02
 -2.65221611E+00 -1.24209943E-19  5.94042601E-02 -2.65221611E+00 -1.24209943E-19
  5.94042601E-02 -2.65221611E+00 -1.24209943E-19  5.94042601E-02 -2.65221611E+00
 -1.24209943E-19  5.94042601E-02 -2.65221611E+00 -1.24209943E-19  5.94042601E-02
 -2.65221611E+00 -1.24209943E-19  5.94042601E-02 -2.65221611E+00 -1.24209943E-19
 -9.50468162E-01 -1.09509426E+00  1.58652612E-18 -9.50468162E-01 -1.09509426E+00
  1.58652612E-18 -9.50468162E-01 -1.09509426E+00  1.58652612E-18 -9.50468162E-01
 -1.09509426E+00  1.58652612E-18 -9.50468162E-01 -1.09509426E+00  1.58652612E-18
 -9.50468162E-01 -1.09509426E+00  1.58652612E-18
Num ILSW                                   I              100
ILSW                                       I   N=         100
           1           0           0           0           2           0
           0           0           3           0         419          -1
           5           0           0           0           2           0
           0           0           1           0           1           0
           1           0           0           0           0           0
           0           0      100000           0          -1           0
           0           0           0           0           0           0
           0           0           0           1           1           0
           0 -2000000000           1           0           0           0
           0           0           4          52           0           0
           0           0          47           0           0           0
           0           0           0           0           4           1
           0           0           0           0           0           0
           0           0           0           0           0           0
           0           0           0           0           0           0
           0           0           0           0           0           0
           0           0           0           0
Num RLSW                                   I               52
RLSW                                       R   N=          52
  4.70000000E-01  4.70000000E-01  7.30000000E-01  7.30000000E-01  5.30000000E-01
  0.00000000E+00  0.00000000E+00  1.00000000E+00  0.00000000E+00  0.00000000E+00
  0.00000000E+00  0.00000000E+00  1.00000000E+00  0.00000000E+00  0.00000000E+00
  0.00000000E+00  0.00000000E+00  1.00000000E+00  0.00000000E+00  0.00000000E+00
  0.00000000E+00  0.00000000E+00  1.00000000E+00  0.00000000E+00  0.00000000E+00
  0.00000000E+00  0.00000000E+00  1.00000000E+00  0.00000000E+00  0.00000000E+00
  0.00000000E+00  0.00000000E+00  1.00000000E+00  0.00000000E+00  0.00000000E+00
  0.00000000E+00  0.00000000E+00  0.00000000E+00  2.70000000E-01  2.70000000E-01
  0.00000000E+00  1.00000000E+00  0.00000000E+00  0.00000000E+00  0.00000000E+00
  0.00000000E+00  0.00000000E+00  0.00000000E+00  0.00000000E+00  0.00000000E+00
  0.00000000E+00  0.00000000E+00
MxBond                                     I                1
NBond                                      I   N=           3
           0           1           1
IBond                                      I   N=           3
           0           3           2
RBond                                      R   N=           3
  0.00000000E+00  1.00000000E+00  1.00000000E+00
Virial Ratio                               R      2.003017339291405E+00
SCF Energy                                 R     -1.506258320719622E+02
MP2 Energy                                 R     -1.507350628090458E+02
Total Energy                               R     -1.507350628090458E+02
PUHF Energy                                R     -1.506172246740053E+02
PMP2-0 Energy                              R     -1.507326565891433E+02
Post-SCF wavefunction norm                 R      1.486824474636380E+00
S**2                                       R      1.757891773021612E+00
S**2 after annihilation                    R      7.764421178372972E-01
S**2 corrected to first order              R      1.830333562307499E+00
RMS Force                                  R      4.364438513910780E-03
RMS Density                                R      8.372368427169596E-09
NImag                                      I                0
Job Status                                 I                1
Nuclear derivative order                   I                2
External E-field                           R   N=          35
  0.00000000E+00  0.00000000E+00  0.00000000E+00  0.00000000E+00  0.00000000E+00
  0.00000000E+00  0.00000000E+00  0.00000000E+00  0.00000000E+00  0.00000000E+00
  0.00000000E+00  0.00000000E+00  0.00000000E+00  0.00000000E+00  0.00000000E+00
  0.00000000E+00  0.00000000E+00  0.00000000E+00  0.00000000E+00  0.00000000E+00
  0.00000000E+00  0.00000000E+00  0.00000000E+00  0.00000000E+00  0.00000000E+00
  0.00000000E+00  0.00000000E+00  0.00000000E+00  0.00000000E+00  0.00000000E+00
  0.00000000E+00  0.00000000E+00  0.00000000E+00  0.00000000E+00  0.00000000E+00
IOpCl                                      I                1
IROHF                                      I                0
Alpha Orbital Energies                     R   N=          74
 -1.98768190E+01 -1.97872491E+01 -1.15799096E+00 -1.09803812E+00 -5.58916740E-01
 -5.55005959E-01 -5.05242432E-01 -4.71719591E-01 -4.22374876E-01 -1.09044788E-01
  1.08754827E-01  4.23284039E-01  5.42640911E-01  5.73399024E-01  6.11961279E-01
  6.37429265E-01  6.61908839E-01  7.01927874E-01  7.58583744E-01  7.82731372E-01
  9.42527619E-01  1.11793363E+00  1.28275651E+00  1.48567419E+00  1.50322598E+00
  1.50519087E+00  1.52870916E+00  1.53262599E+00  1.56693321E+00  1.68958523E+00
  1.86119313E+00  1.99489390E+00  2.05970532E+00  2.60324209E+00  3.31053525E+00
  3.32470887E+00  3.48303218E+00  3.60840024E+00  3.65945133E+00  3.73930548E+00
  3.76179371E+00  3.77847195E+00  3.81676195E+00  3.92247775E+00  4.17449524E+00
  4.22467153E+00  4.46923445E+00  4.84863952E+00  5.17837201E+00  5.18630896E+00
  5.19725398E+00  5.21007288E+00  5.21331474E+00  5.25768381E+00  5.25791939E+00
  5.26487593E+00  5.28322784E+00  5.51790924E+00  5.52139951E+00  6.26147426E+00
  6.26160917E+00  6.27802477E+00  6.34702899E+00  6.35712136E+00  6.35761615E+00
  6.38485569E+00  6.46197802E+00  6.54831249E+00  6.66429193E+00  6.73750119E+00
  6.80133809E+00  7.18214766E+00  7.51605930E+00  1.04189219E+01
Beta Orbital Energies                      R   N=          74
 -1.98769454E+01 -1.97572264E+01 -1.09957541E+00 -1.05382726E+00 -5.60894194E-01
 -5.25242692E-01 -4.68284858E-01 -3.91264225E-01 -1.10792512E-01 -4.46651276E-02
  1.15263122E-01  4.30076416E-01  5.42927623E-01  6.01369576E-01  6.32082266E-01
  6.57477744E-01  6.84971094E-01  7.32995682E-01  7.57837358E-01  8.06894603E-01
  9.53874168E-01  1.12737033E+00  1.28903727E+00  1.50545085E+00  1.50609940E+00
  1.51307506E+00  1.54421546E+00  1.59486967E+00  1.60126544E+00  1.69084176E+00
  1.91778401E+00  2.00848249E+00  2.06245169E+00  2.60932434E+00  3.31727320E+00
  3.32989037E+00  3.54138521E+00  3.59894733E+00  3.67908359E+00  3.74873070E+00
  3.76991127E+00  3.80651683E+00  3.81950869E+00  3.91800236E+00  4.22621260E+00
  4.23201170E+00  4.49037771E+00  4.87521506E+00  5.18162616E+00  5.18528969E+00
  5.19589729E+00  5.21060379E+00  5.22774732E+00  5.25757324E+00  5.27716497E+00
  5.32220488E+00  5.32381834E+00  5.56044984E+00  5.56441806E+00  6.24568680E+00
  6.27756372E+00  6.29071730E+00  6.34555843E+00  6.38121175E+00  6.45022013E+00
  6.45845057E+00  6.54891936E+00  6.55989122E+00  6.67733524E+00  6.78976232E+00
  6.80783387E+00  7.20846879E+00  7.51959993E+00  1.04507991E+01
Alpha MO coefficients                      R   N=        5476
  9.75105943E-01 -9.44350673E-03  4.70109181E-02  2.69359906E-03 -5.68957303E-05
 -9.40264131E-05  0.00000000E+00  4.89870913E-05  1.47840772E-04  0.00000000E+00
 -7.13504073E-05 -2.70080432E-04  0.00000000E+00  1.02375460E-03  0.00000000E+00
  0.00000000E+00 -1.22212275E-04  6.34167827E-04 -1.77840657E-04  0.00000000E+00
  0.00000000E+00 -5.74392009E-05  6.48195893E-05  0.00000000E+00  6.35480340E-07
  3.90223588E-06  0.00000000E+00  0.00000000E+00  4.90126526E-06  4.00101148E-06
 -2.32722586E-05 -8.46186808E-05  1.21294968E-05  4.58408338E-04 -9.87629562E-06
 -2.49408624E-05  0.00000000E+00  1.57558127E-05  1.16072012E-04  0.00000000E+00
 -8.88547875E-05  7.74480746E-05  0.00000000E+00 -5.09945951E-06  0.00000000E+00
  0.00000000E+00  6.27394863E-06 -3.88934296E-06 -1.40028714E-05  0.00000000E+00
  0.00000000E+00 -4.46676350E-05 -2.20691401E-05  0.00000000E+00  5.50418469E-06
 -6.38118637E-06  0.00000000E+00  0.00000000E+00  6.39045497E-06  2.38992898E-06
  1.45405476E-05 -2.26588868E-04 -4.39394732E-04  2.13429428E-05  4.90604322E-05
  0.00000000E+00 -1.97031813E-04 -7.64068752E-05  0.00000000E+00  4.18926564E-05
  0.00000000E+00  0.00000000E+00  2.91110332E-05  5.92972859E-06 -1.34862574E-05
 -9.47073094E-05  2.16700401E-05  1.93270292E-04 -1.24722845E-05  3.23297443E-06
  0.00000000E+00  5.04645292E-05 -4.99026080E-06  0.00000000E+00 -9.23259290E-05
 -5.58512751E-05  0.00000000E+00 -2.00009005E-06  0.00000000E+00  0.00000000E+00
 -6.09470631E-06 -8.26665558E-06  2.99532490E-06  0.00000000E+00  0.00000000E+00
  1.23901787E-05  2.16430940E-05  0.00000000E+00  3.41880409E-07 -2.18531618E-06
  0.00000000E+00  0.00000000E+00  1.11669894E-06 -3.26928029E-06  9.74330783E-01
 -9.73180556E-03  4.84618035E-02  3.20094197E-03 -7.90760238E-04  1.18806753E-03
  0.00000000E+00  4.24638970E-04 -6.14832934E-04  0.00000000E+00 -2.11775526E-04
  3.49968927E-04  0.00000000E+00  5.28187366E-04  0.00000000E+00  0.00000000E+00
 -4.16439546E-05 -1.19471739E-04  1.70982007E-06  0.00000000E+00  0.00000000E+00
  9.27890594E-05  2.73656549E-04  0.00000000E+00 -2.78618408E-05  4.10226428E-05
  0.00000000E+00  0.00000000E+00 -6.42504329E-05 -1.41033241E-05  5.24206592E-04
 -6.68780968E-05 -7.51090041E-04  1.55326041E-04 -2.08963238E-04  0.00000000E+00
 -1.10518420E-04  4.37270961E-05  0.00000000E+00  1.85850632E-04  0.00000000E+00
  0.00000000E+00  1.12374918E-04  2.66282734E-04 -1.98837358E-02  4.83690513E-02
  1.43851801E-02  3.23877747E-02 -1.01398537E-03 -2.62692969E-03  0.00000000E+00
 -1.34576151E-03 -3.80449193E-03  0.00000000E+00 -4.48193802E-04 -1.78031949E-03
  0.00000000E+00  9.36895585E-04  0.00000000E+00  0.00000000E+00 -2.00006537E-04
  5.11850214E-04  1.69991919E-03  0.00000000E+00  0.00000000E+00 -6.35218144E-04
  1.12399773E-03  0.00000000E+00 -1.08622572E-05 -2.96955776E-05  0.00000000E+00
  0.00000000E+00  4.49126453E-05  4.00682651E-05 -2.13520167E-01  5.13828722E-01
  1.52606591E-01  3.11392185E-01 -2.81021782E-02  4.34735953E-02  0.00000000E+00
 -3.62831810E-02  5.59982693E-02  0.00000000E+00 -7.81884549E-03  1.26787714E-02
  0.00000000E+00  4.63980786E-03  0.00000000E+00  0.00000000E+00 -1.55841742E-03
 -3.60960723E-03  9.55182918E-03  0.00000000E+00  0.00000000E+00 -3.25717799E-03
 -7.68850767E-03  0.00000000E+00 -9.47167048E-05  1.56495037E-04  0.00000000E+00
  0.00000000E+00  1.43114023E-03  2.46005451E-04  9.64662972E-02  8.07079066E-02
  1.05855195E-02  7.64447955E-03 -1.19833397E-02  0.00000000E+00  8.75866025E-03
 -1.22950118E-02  0.00000000E+00 -1.52456643E-03  0.00000000E+00  0.00000000E+00
 -1.38994578E-03 -3.09370808E-03 -2.25850209E-01  5.51399402E-01  1.66430941E-01
  3.79684233E-01 -1.62512105E-03 -1.61145800E-03  0.00000000E+00 -2.64232973E-03
 -3.41094783E-03  0.00000000E+00 -2.52359710E-03 -2.01017828E-03  0.00000000E+00
  1.13471640E-02  0.00000000E+00  0.00000000E+00 -1.16646966E-03  5.51142792E-03
  2.21946008E-02  0.00000000E+00  0.00000000E+00 -2.98156667E-03  1.14856531E-02
  0.00000000E+00 -3.06884820E-05 -3.78226994E-06  0.00000000E+00  0.00000000E+00
  1.69201270E-04  3.29337995E-05  2.24909057E-02 -5.29507303E-02 -1.61758855E-02
 -3.74487890E-02  2.62890077E-03 -1.71034506E-03  0.00000000E+00  3.33672733E-03
 -2.20676696E-03  0.00000000E+00  1.69916950E-03 -5.88781653E-04  0.00000000E+00
 -6.05708260E-04  0.00000000E+00  0.00000000E+00  1.70655087E-05  2.55906169E-04
 -1.14843524E-03  0.00000000E+00  0.00000000E+00  7.89885370E-05  9.68575536E-04
  0.00000000E+00 -2.91601122E-05  4.04473127E-05  0.00000000E+00  0.00000000E+00
 -1.97423328E-04 -1.22077464E-04 -5.85057425E-03 -2.78402723E-03  4.71592631E-03
 -4.74438934E-04  1.23066492E-03  0.00000000E+00 -6.33726851E-04  3.63171900E-03
  0.00000000E+00  1.03012630E-04  0.00000000E+00  0.00000000E+00 -1.18766085E-04
  3.88726175E-04  0.00000000E+00  0.00000000E+00  0.00000000E+00  0.00000000E+00
  0.00000000E+00  0.00000000E+00  3.98461976E-01  0.00000000E+00  0.00000000E+00
  4.86342392E-01  0.00000000E+00  0.00000000E+00  3.27663664E-01  0.00000000E+00
 -6.68789204E-05 -4.24792233E-05  0.00000000E+00  0.00000000E+00  0.00000000E+00
 -1.66075577E-03 -2.22165579E-03  0.00000000E+00  0.00000000E+00  9.27920055E-03
  0.00000000E+00  0.00000000E+00 -3.14259382E-04  9.28992125E-04  0.00000000E+00
  0.00000000E+00  0.00000000E+00  0.00000000E+00  0.00000000E+00  0.00000000E+00
  0.00000000E+00  0.00000000E+00  2.04568313E-02  0.00000000E+00  0.00000000E+00
  2.40094678E-02  0.00000000E+00  0.00000000E+00  1.92032784E-02  0.00000000E+00
 -1.83743201E-04  2.37711110E-04  0.00000000E+00  0.00000000E+00  0.00000000E+00
 -2.49624207E-04  1.32530000E-03  0.00000000E+00  0.00000000E+00  2.82751891E-04
  0.00000000E+00  0.00000000E+00 -1.24843698E-04 -1.37093917E-04  0.00000000E+00
  0.00000000E+00  0.00000000E+00  0.00000000E+00  0.00000000E+00  0.00000000E+00
  0.00000000E+00  5.02877566E-04  0.00000000E+00  0.00000000E+00  4.18522493E-03
  0.00000000E+00  2.02929697E-04  2.63976516E-05  0.00000000E+00  0.00000000E+00
  8.54143778E-03 -2.53659195E-02 -7.71818636E-03 -1.42553599E-02 -4.94985703E-02
 -7.10133241E-02  0.00000000E+00 -5.82412196E-02 -8.59555613E-02  0.00000000E+00
 -4.67659347E-02 -6.72857299E-02  0.00000000E+00 -6.40336847E-04  0.00000000E+00
  0.00000000E+00 -2.07434135E-04 -1.83592097E-04 -2.51126674E-03  0.00000000E+00
  0.00000000E+00 -1.89064453E-03  1.80329882E-03  0.00000000E+00 -8.67614887E-04
 -1.28255627E-03  0.00000000E+00  0.00000000E+00  4.06197976E-04  3.99035724E-05
  6.44770876E-02 -1.63518182E-01 -5.26001975E-02 -2.48055508E-01 -1.61661006E-01
  2.54508397E-01  0.00000000E+00 -1.86576369E-01  2.94454494E-01  0.00000000E+00
 -1.12910777E-01  1.78955432E-01  0.00000000E+00 -6.79813691E-03  0.00000000E+00
  0.00000000E+00 -3.15451683E-03 -6.99878187E-03 -1.51930518E-02  0.00000000E+00
  0.00000000E+00 -6.96725388E-03 -1.39824460E-02  0.00000000E+00 -1.76685882E-03
  2.79592643E-03  0.00000000E+00  0.00000000E+00  2.75401506E-03  3.61992414E-04
  1.52728758E-01  2.44514904E-01  4.54965414E-02  7.81989402E-03 -1.13721621E-02
  0.00000000E+00  1.17990090E-02 -1.81414171E-02  0.00000000E+00 -1.88904548E-03
  0.00000000E+00  0.00000000E+00 -2.61491501E-03 -5.21610481E-03  0.00000000E+00
  0.00000000E+00  0.00000000E+00  0.00000000E+00  0.00000000E+00  0.00000000E+00
 -2.52168327E-02  0.00000000E+00  0.00000000E+00 -3.22067188E-02  0.00000000E+00
  0.00000000E+00 -1.67315850E-02  0.00000000E+00 -2.40743318E-06  6.81678958E-05
  0.00000000E+00  0.00000000E+00  0.00000000E+00  3.15846230E-05 -1.18004990E-03
  0.00000000E+00  0.00000000E+00 -6.57775337E-04  0.00000000E+00  0.00000000E+00
 -7.95757577E-05 -4.50476784E-05  0.00000000E+00  0.00000000E+00  0.00000000E+00
  0.00000000E+00  0.00000000E+00  0.00000000E+00  0.00000000E+00  0.00000000E+00
  3.87376065E-01  0.00000000E+00  0.00000000E+00  4.74392595E-01  0.00000000E+00
  0.00000000E+00  3.36062628E-01  0.00000000E+00 -2.54549905E-03  3.80706803E-03
  0.00000000E+00  0.00000000E+00  0.00000000E+00 -9.57244537E-03  1.50477204E-02
  0.00000000E+00  0.00000000E+00  6.10422604E-03  0.00000000E+00  0.00000000E+00
 -1.20033533E-03 -2.80638584E-03  0.00000000E+00  0.00000000E+00  0.00000000E+00
  0.00000000E+00  0.00000000E+00  0.00000000E+00  0.00000000E+00  8.64967187E-03
  0.00000000E+00  0.00000000E+00  2.52558051E-02  0.00000000E+00  2.17198465E-03
 -3.34153622E-03  0.00000000E+00  0.00000000E+00 -1.69986504E-03  5.88565856E-03
  2.00741447E-03  5.52513550E-04  2.33776239E-01  2.90057071E-01  0.00000000E+00
  2.79750829E-01  3.47791824E-01  0.00000000E+00  2.20060770E-01  2.72325085E-01
  0.00000000E+00  9.00023645E-05  0.00000000E+00  0.00000000E+00 -6.78186725E-05
  4.55845847E-06  1.98761433E-03  0.00000000E+00  0.00000000E+00  9.16111437E-04
 -2.77094453E-03  0.00000000E+00  4.37749380E-03  5.36945558E-03  0.00000000E+00
  0.00000000E+00 -9.93460140E-04  3.37491749E-04  8.47354188E-03 -2.47611693E-02
 -7.50649357E-03 -3.30134810E-02 -9.35826610E-02  5.18432233E-02  0.00000000E+00
 -1.11030101E-01  6.03553423E-02  0.00000000E+00 -8.35581347E-02  3.85018834E-02
  0.00000000E+00 -1.41635647E-03  0.00000000E+00  0.00000000E+00 -9.35803912E-05
 -2.17036914E-03 -4.20996615E-03  0.00000000E+00  0.00000000E+00  9.38347772E-04
 -6.46833444E-03  0.00000000E+00 -1.09483696E-03  3.24036871E-04  0.00000000E+00
  0.00000000E+00  9.33312992E-04  9.15869130E-04  3.57691453E-02  5.02904641E-02
 -1.81124854E-02  9.66402484E-04 -5.61643013E-03  0.00000000E+00  3.40929434E-04
 -1.23169779E-02  0.00000000E+00 -1.43821733E-04  0.00000000E+00  0.00000000E+00
 -2.91781712E-04 -1.38308327E-03  2.99379926E-03 -1.43790012E-02 -3.19533245E-03
  3.61952839E-03  4.61556398E-02  3.79037939E-02  0.00000000E+00  5.33187918E-02
  4.73666637E-02  0.00000000E+00  5.22894267E-02  2.49669312E-02  0.00000000E+00
 -2.83364933E-04  0.00000000E+00  0.00000000E+00 -1.05006509E-04  7.72676192E-05
 -8.86697575E-04  0.00000000E+00  0.00000000E+00 -1.51075428E-03 -2.14435382E-03
  0.00000000E+00  8.78825480E-04  6.73902111E-04  0.00000000E+00  0.00000000E+00
 -2.69181205E-04  1.93743541E-04  1.75245895E-04 -4.43636218E-03 -7.88963997E-04
  1.59754229E-02  3.08362631E-01  2.12526447E-01  0.00000000E+00  3.67069626E-01
  2.54927994E-01  0.00000000E+00  2.99678098E-01  2.13828138E-01  0.00000000E+00
 -4.79734811E-05  0.00000000E+00  0.00000000E+00 -4.09123345E-03  1.60124489E-03
 -1.36903081E-03  0.00000000E+00  0.00000000E+00 -1.61674894E-02  5.51056024E-03
  0.00000000E+00  5.01820769E-03  3.21179763E-03  0.00000000E+00  0.00000000E+00
  8.52288141E-04 -3.28175964E-03  3.06507837E-03 -1.65959274E-03 -2.07324004E-02
  8.10020995E-03  5.05331400E-03  0.00000000E+00  2.27076277E-02  1.73855795E-02
  0.00000000E+00  3.18523451E-04  0.00000000E+00  0.00000000E+00  4.39864648E-03
 -1.59091725E-03  6.67637149E-04  1.70648918E-03 -4.51712406E-04 -7.59549140E-03
  2.61983554E-01 -2.08696214E-01  0.00000000E+00  3.03640875E-01 -2.44991272E-01
  0.00000000E+00  3.92445561E-01 -3.06376372E-01  0.00000000E+00 -3.52236011E-05
  0.00000000E+00  0.00000000E+00  2.94565168E-05  2.28529290E-05 -4.45360244E-05
  0.00000000E+00  0.00000000E+00 -2.88226530E-03 -2.64133303E-04  0.00000000E+00
  6.20541122E-03 -4.91275988E-03  0.00000000E+00  0.00000000E+00  6.94179987E-04
  1.62818618E-03  4.68309283E-03 -1.93716490E-02 -5.45074060E-03  9.82253440E-03
 -1.09765946E-02 -3.61037009E-02  0.00000000E+00 -1.99362473E-02 -4.19787076E-02
  0.00000000E+00 -8.27940058E-03 -1.63974394E-02  0.00000000E+00  1.24423150E-04
  0.00000000E+00  0.00000000E+00  4.15812018E-04  3.57070396E-04 -3.56367989E-03
  0.00000000E+00  0.00000000E+00 -2.97005945E-03 -5.69239360E-04  0.00000000E+00
 -4.41957892E-05 -9.93024806E-04  0.00000000E+00  0.00000000E+00  2.19808849E-04
 -9.79233660E-06 -2.35153115E-03 -2.63548142E-02  3.63002105E-02 -2.40059227E-03
  3.53051723E-03  0.00000000E+00 -3.86403977E-04  1.02676379E-02  0.00000000E+00
  7.72203616E-04  0.00000000E+00  0.00000000E+00 -4.45777968E-05  2.48822103E-03
  3.19044480E-02 -1.00321214E-01 -3.17374063E-02 -1.81228279E-01  2.48646513E-02
  7.37861864E-02  0.00000000E+00  3.86391775E-02  6.70960300E-02  0.00000000E+00
  1.06586393E-02  2.12384850E-01  0.00000000E+00 -3.23075319E-03  0.00000000E+00
  0.00000000E+00 -2.02844199E-03  8.48769522E-05 -2.04115997E-04  0.00000000E+00
  0.00000000E+00  4.89471307E-03  3.05347473E-03  0.00000000E+00  3.02717407E-04
  9.42506588E-04  0.00000000E+00  0.00000000E+00 -2.08523772E-05 -3.51480089E-04
  6.71908447E-02 -1.13550061E-01 -4.85396966E-02 -1.09787517E+00  7.75349583E-02
 -9.28637364E-02  0.00000000E+00  1.30763013E-01 -1.58360314E-01  0.00000000E+00
  2.96201360E-01 -4.59024867E-01  0.00000000E+00 -3.87810116E-03  0.00000000E+00
  0.00000000E+00 -1.02994595E-03 -1.84880358E-03  2.41602440E-02  0.00000000E+00
  0.00000000E+00  2.06510040E-02  3.69182399E-02  0.00000000E+00 -6.30776000E-04
  1.59253815E-03  0.00000000E+00  0.00000000E+00 -4.47754634E-03 -4.42305988E-04
  5.88833821E-02  3.05355842E-01  1.65939504E+00 -7.71345374E-03  1.05276690E-02
  0.00000000E+00  9.20436815E-02 -1.59976656E-01  0.00000000E+00 -8.92399790E-03
  0.00000000E+00  0.00000000E+00 -5.58678248E-03 -1.55736763E-02 -5.76778095E-03
 -1.57906633E-02 -1.64553570E-03  1.74135051E-01  4.01699010E-02  6.05827617E-02
  0.00000000E+00  9.53288752E-02  1.31749506E-01  0.00000000E+00 -1.50228336E-01
 -2.54728140E-01  0.00000000E+00  1.90574964E-03  0.00000000E+00  0.00000000E+00
  2.47041717E-03 -2.25340574E-03 -3.05848822E-02  0.00000000E+00  0.00000000E+00
 -3.57607882E-02  3.33228144E-02  0.00000000E+00  1.29909162E-03  2.98110574E-03
  0.00000000E+00  0.00000000E+00  2.37466048E-03  1.42006170E-03  2.10822127E-02
 -7.09671634E-02 -1.25394483E-02  4.21850911E-02  8.04149251E-02 -1.60254840E-01
  0.00000000E+00  1.10957039E-01 -2.45781710E-01  0.00000000E+00  2.48212172E-01
 -3.12006122E-01  0.00000000E+00 -7.84168359E-03  0.00000000E+00  0.00000000E+00
 -4.38244508E-03 -1.15403997E-02 -1.67844845E-02  0.00000000E+00  0.00000000E+00
 -1.35808297E-02 -2.42631039E-03  0.00000000E+00 -1.85774902E-03  1.79575822E-03
  0.00000000E+00  0.00000000E+00 -7.63509074E-03 -2.25410531E-03  1.45704383E-01
  1.52196294E+00 -1.24995595E+00  2.21690627E-02 -2.74096868E-02  0.00000000E+00
 -1.56702374E-01  2.57446111E-01  0.00000000E+00 -1.60362047E-03  0.00000000E+00
  0.00000000E+00 -5.49019582E-03 -3.84830523E-03  0.00000000E+00  0.00000000E+00